       N       E                     dE             d eps       ncg     rms          rms(c)
DAV:   1    -0.103626225745E+04   -0.10363E+04   -0.77950E+03  6968   0.131E-01    0.881E+01
RMM:   2     0.185590220120E+04    0.28922E+04   -0.35901E+03  5763   0.261E+02    0.347E+01
RMM:   3     0.178191477945E+04   -0.73987E+02   -0.78319E+03  5875   0.379E+02    0.219E+01
RMM:   4     0.109996103382E+04   -0.68195E+03   -0.92516E+03  6142   0.623E+02    0.137E+01
RMM:   5     0.301897084232E+03   -0.79806E+03   -0.80777E+03  6341   0.592E+02    0.144E+01
RMM:   6    -0.882220368352E+02   -0.39012E+03   -0.43344E+03  6096   0.390E+02    0.203E+01
RMM:   7    -0.335654818854E+03   -0.24743E+03   -0.24973E+03  6063   0.250E+02    0.306E+01
RMM:   8    -0.465333685111E+03   -0.12968E+03   -0.15237E+03  6070   0.167E+02    0.416E+01
RMM:   9    -0.499256975193E+03   -0.33923E+02   -0.74170E+02  5821   0.109E+02    0.490E+01
RMM:  10    -0.522812983331E+03   -0.23556E+02   -0.25288E+02  5708   0.660E+01    0.546E+01
RMM:  11    -0.527308815872E+03   -0.44958E+01   -0.11780E+02  5262   0.424E+01    0.615E+01
RMM:  12    -0.531627810473E+03   -0.43190E+01   -0.46498E+01  5312   0.247E+01    0.654E+01
RMM:  13    -0.531397344098E+03    0.23047E+00   -0.88993E+00  5088   0.118E+01    0.665E+01
RMM:  14    -0.529847490038E+03    0.15499E+01   -0.22580E+00  5049   0.649E+00    0.655E+01
RMM:  15    -0.511894287629E+03    0.17953E+02   -0.94250E+00  5327   0.200E+01    0.527E+01
RMM:  16    -0.497830571279E+03    0.14064E+02   -0.23980E+00  4770   0.120E+01    0.454E+01
RMM:  17    -0.499335968286E+03   -0.15054E+01   -0.41402E-01  5081   0.422E+00    0.458E+01
RMM:  18    -0.507946393433E+03   -0.86104E+01   -0.39076E-01  5153   0.439E+00    0.504E+01
RMM:  19    -0.504402721381E+03    0.35437E+01   -0.66591E-01  5370   0.426E+00    0.464E+01
RMM:  20    -0.499214574724E+03    0.51881E+01   -0.11792E-01  4918   0.202E+00    0.466E+01
RMM:  21    -0.480791263344E+03    0.18423E+02   -0.24886E+00  4594   0.831E+00    0.499E+01
RMM:  22    -0.482149836802E+03   -0.13586E+01   -0.52835E-01  4264   0.364E+00    0.500E+01
RMM:  23    -0.482403087573E+03   -0.25325E+00   -0.24835E-01  4867   0.160E+00    0.501E+01
RMM:  24    -0.476804460469E+03    0.55986E+01   -0.68812E-01  4717   0.487E+00    0.453E+01
RMM:  25    -0.454186851147E+03    0.22618E+02   -0.48093E+00  4660   0.107E+01    0.531E+01
RMM:  26    -0.440649376069E+03    0.13537E+02   -0.33850E+00  4918   0.113E+01    0.568E+01
RMM:  27    -0.430729849987E+03    0.99195E+01   -0.18880E+00  4908   0.776E+00    0.546E+01
RMM:  28    -0.437155263440E+03   -0.64254E+01   -0.45855E+00  4694   0.125E+01    0.602E+01
RMM:  29    -0.436412093606E+03    0.74317E+00   -0.45744E-01  4825   0.376E+00    0.597E+01
RMM:  30    -0.435407487887E+03    0.10046E+01   -0.64072E-01  4812   0.324E+00    0.601E+01
RMM:  31    -0.434929099308E+03    0.47839E+00   -0.28586E-01  4362   0.159E+00    0.601E+01
RMM:  32    -0.431069354963E+03    0.38597E+01   -0.32088E-01  4412   0.150E+00    0.605E+01
RMM:  33    -0.411945455347E+03    0.19124E+02   -0.22966E+00  4480   0.126E+01    0.553E+01
RMM:  34    -0.419785552297E+03   -0.78401E+01   -0.41757E+00  4941   0.998E+00    0.594E+01
RMM:  35    -0.428496966839E+03   -0.87114E+01   -0.47954E+00  4494   0.131E+01    0.631E+01
RMM:  36    -0.426875651909E+03    0.16213E+01   -0.30402E-01  4717   0.352E+00    0.630E+01
RMM:  37    -0.430018009262E+03   -0.31424E+01   -0.18684E-01  4695   0.297E+00    0.630E+01
RMM:  38    -0.613945206711E+03   -0.18393E+03   -0.50992E+01  5596   0.123E+02    0.603E+01
RMM:  39    -0.606334048774E+03    0.76112E+01   -0.51524E+01  5065   0.846E+01    0.591E+01
RMM:  40    -0.435025301483E+03    0.17131E+03   -0.17558E+02  5161   0.843E+01    0.621E+01
RMM:  41    -0.435778948230E+03   -0.75365E+00   -0.86990E+00  4467   0.199E+01    0.629E+01
RMM:  42    -0.431330995852E+03    0.44480E+01   -0.11325E+00  4689   0.680E+00    0.630E+01
RMM:  43    -0.433587658815E+03   -0.22567E+01   -0.42981E-01  4476   0.494E+00    0.643E+01
RMM:  44    -0.597506628564E+03   -0.16392E+03   -0.10859E+02  5492   0.109E+02    0.626E+01
RMM:  45    -0.427349983353E+03    0.17016E+03   -0.14256E+02  4605   0.788E+01    0.645E+01
RMM:  46    -0.428422967991E+03   -0.10730E+01   -0.15825E+01  4689   0.245E+01    0.644E+01
RMM:  47    -0.355031389906E+05   -0.35075E+05   -0.59402E+04  6421   0.111E+04    0.970E+01
RMM:  48    -0.227306895781E+05    0.12772E+05    0.22344E+03  5646   0.415E+03    0.108E+02
RMM:  49    -0.302227480090E+05   -0.74921E+04    0.17488E+05  5687   0.541E+03    0.976E+01
RMM:  50    -0.185997814248E+05    0.11623E+05   -0.51613E+03  6023   0.641E+03    0.101E+02
RMM:  51    -0.221747278598E+05   -0.35749E+04    0.93591E+04  5187   0.605E+03    0.102E+02
RMM:  52    -0.696999835356E+05   -0.47525E+05    0.84952E+04  6351   0.221E+04    0.117E+02
RMM:  53    -0.586069245685E+05    0.11093E+05    0.59570E+04  5974   0.229E+04    0.989E+01
RMM:  54    -0.103118495315E+06   -0.44512E+05    0.57063E+04  5677   0.296E+04    0.130E+02
RMM:  55    -0.649419414797E+05    0.38177E+05   -0.60380E+04  6337   0.343E+04    0.108E+02
RMM:  56    -0.383665503393E+04    0.61105E+05    0.17390E+04  6491   0.591E+03    0.905E+01
RMM:  57    -0.113120356513E+04    0.27055E+04   -0.45936E+03  6244   0.645E+02    0.957E+01
RMM:  58    -0.314007177501E+02    0.10998E+04   -0.17080E+03  5630   0.353E+02    0.810E+01
RMM:  59    -0.110671223533E+04   -0.10753E+04   -0.15938E+03  5804   0.367E+02    0.896E+01
RMM:  60    -0.346402809494E+02    0.10721E+04   -0.73950E+02  4960   0.171E+02
   1 F= -.34640281E+02 E0= -.34640256E+02  d E =-.346403E+02  mag=     0.8337
       N       E                     dE             d eps       ncg     rms          rms(c)
DAV:   1    -0.198947727463E+01    0.11047E+04   -0.42427E+03  4872   0.453E+02    0.752E+01
RMM:   2    -0.191837739817E+02   -0.17194E+02   -0.10309E+02  5109   0.426E+02    0.460E+01
RMM:   3    -0.532791987873E+02   -0.34095E+02   -0.25360E+02  4719   0.938E+01    0.291E+01
RMM:   4    -0.337604440834E+02    0.19519E+02   -0.20855E+01  4529   0.289E+01    0.146E+01
RMM:   5    -0.333450073857E+02    0.41544E+00   -0.88536E+00  4339   0.160E+01    0.230E+01
RMM:   6    -0.295822493265E+02    0.37628E+01   -0.28585E+00  4068   0.964E+00    0.123E+01
RMM:   7    -0.276472455453E+02    0.19350E+01   -0.17653E+00  4275   0.709E+00    0.152E+01
RMM:   8    -0.263607775298E+02    0.12865E+01   -0.23774E-01  4289   0.284E+00    0.108E+01
RMM:   9    -0.256655636651E+02    0.69521E+00   -0.13105E-01  4146   0.188E+00    0.977E+00
RMM:  10    -0.234401253026E+02    0.22254E+01   -0.53625E-01  4045   0.337E+00    0.679E+00
RMM:  11    -0.202615036142E+02    0.31786E+01   -0.11062E+00  4069   0.484E+00    0.950E+00
RMM:  12    -0.200981450369E+02    0.16336E+00   -0.10512E-01  4063   0.197E+00    0.866E+00
RMM:  13    -0.200110986827E+02    0.87046E-01   -0.12163E-01  4043   0.183E+00    0.616E+00
RMM:  14    -0.194091276495E+02    0.60197E+00   -0.23505E-01  4032   0.231E+00    0.309E+00
RMM:  15    -0.188961315035E+02    0.51300E+00   -0.46102E-01  4032   0.317E+00    0.205E+00
RMM:  16    -0.186242951925E+02    0.27184E+00   -0.79859E-02  4045   0.156E+00    0.165E+00
RMM:  17    -0.185739743010E+02    0.50321E-01   -0.32531E-02  4042   0.974E-01    0.147E+00
RMM:  18    -0.185327048902E+02    0.41269E-01   -0.60994E-02  4084   0.105E+00    0.102E+00
RMM:  19    -0.185360471072E+02   -0.33422E-02   -0.23046E-02  4045   0.642E-01    0.676E-01
RMM:  20    -0.185397659078E+02   -0.37188E-02   -0.31159E-03  3643   0.252E-01    0.561E-01
RMM:  21    -0.185534711065E+02   -0.13705E-01   -0.14327E-02  4032   0.550E-01    0.411E-01
RMM:  22    -0.185541788329E+02   -0.70773E-03   -0.55081E-03  3556   0.370E-01    0.287E-01
RMM:  23    -0.185575616693E+02   -0.33828E-02   -0.25492E-03  3670   0.246E-01    0.249E-01
RMM:  24    -0.185592047394E+02   -0.16431E-02   -0.13738E-03  3387   0.181E-01    0.124E-01
RMM:  25    -0.185604256360E+02   -0.12209E-02   -0.55873E-04  3157   0.116E-01    0.844E-02
RMM:  26    -0.185607813672E+02   -0.35573E-03   -0.28429E-04  2992   0.926E-02    0.492E-02
RMM:  27    -0.185612662547E+02   -0.48489E-03   -0.14352E-04  2830   0.600E-02    0.482E-02
RMM:  28    -0.185614957866E+02   -0.22953E-03   -0.15119E-04  2823   0.542E-02    0.331E-02
RMM:  29    -0.185617829918E+02   -0.28721E-03   -0.14276E-04  2721   0.429E-02    0.276E-02
RMM:  30    -0.185618222653E+02   -0.39274E-04   -0.37538E-05  2163   0.291E-02
   2 F= -.18561822E+02 E0= -.18562048E+02  d E =0.160785E+02  mag=     2.0176
       N       E                     dE             d eps       ncg     rms          rms(c)
DAV:   1    -0.176518351278E+02    0.90995E+00   -0.91424E+02  4160   0.231E+02    0.151E+01
RMM:   2    -0.257467815168E+02   -0.80949E+01   -0.10417E+02  4662   0.636E+01    0.167E+01
RMM:   3    -0.267258288532E+02   -0.97905E+00   -0.14005E+01  4229   0.182E+01    0.146E+01
RMM:   4    -0.239378503685E+02    0.27880E+01   -0.12803E+00  4199   0.656E+00    0.968E+00
RMM:   5    -0.234928138612E+02    0.44504E+00   -0.15340E+00  4038   0.613E+00    0.976E+00
RMM:   6    -0.231134788040E+02    0.37934E+00   -0.25261E-01  4289   0.246E+00    0.335E+00
RMM:   7    -0.231306217736E+02   -0.17143E-01   -0.49896E-02  4079   0.132E+00    0.175E+00
RMM:   8    -0.231961270449E+02   -0.65505E-01   -0.28746E-02  4134   0.857E-01    0.148E+00
RMM:   9    -0.233614964079E+02   -0.16537E+00   -0.70228E-02  4152   0.108E+00    0.423E+00
RMM:  10    -0.233734973789E+02   -0.12001E-01   -0.21430E-02  4014   0.851E-01    0.415E+00
RMM:  11    -0.233646291312E+02    0.88682E-02   -0.23830E-02  3909   0.928E-01    0.388E+00
RMM:  12    -0.233731972353E+02   -0.85681E-02   -0.14150E-02  4071   0.798E-01    0.373E+00
RMM:  13    -0.233520064182E+02    0.21191E-01   -0.48371E-02  4123   0.118E+00    0.307E+00
RMM:  14    -0.233159075194E+02    0.36099E-01   -0.30656E-02  4087   0.865E-01    0.162E+00
RMM:  15    -0.233515428968E+02   -0.35635E-01   -0.10320E-01  4182   0.132E+00    0.547E-01
RMM:  16    -0.233533407098E+02   -0.17978E-02   -0.14565E-01  4045   0.173E+00    0.637E-01
RMM:  17    -0.233613116513E+02   -0.79709E-02   -0.74004E-03  4002   0.499E-01    0.486E-01
RMM:  18    -0.233610596638E+02    0.25199E-03   -0.51445E-03  3792   0.359E-01    0.559E-01
RMM:  19    -0.233662916806E+02   -0.52320E-02   -0.54999E-03  4019   0.406E-01    0.236E-01
RMM:  20    -0.233662297978E+02    0.61883E-04   -0.50823E-03  3867   0.431E-01    0.691E-02
RMM:  21    -0.233672450552E+02   -0.10153E-02   -0.69027E-04  3285   0.191E-01    0.123E-01
RMM:  22    -0.233671782309E+02    0.66824E-04   -0.21755E-04  2938   0.103E-01
   3 F= -.23367178E+02 E0= -.23367876E+02  d E =0.112731E+02  mag=     0.0062
       N       E                     dE             d eps       ncg     rms          rms(c)
DAV:   1    -0.246253752550E+02   -0.12581E+01   -0.16503E+02  4040   0.947E+01    0.538E+00
RMM:   2    -0.251475033818E+02   -0.52213E+00   -0.10905E+01  4613   0.219E+01    0.455E+00
RMM:   3    -0.253342900771E+02   -0.18679E+00   -0.11828E+00  4318   0.580E+00    0.628E+00
RMM:   4    -0.249572694288E+02    0.37702E+00   -0.27215E-01  4174   0.289E+00    0.160E+00
RMM:   5    -0.249673427696E+02   -0.10073E-01   -0.60822E-02  4183   0.145E+00    0.927E-01
RMM:   6    -0.249849081671E+02   -0.17565E-01   -0.18492E-02  4270   0.728E-01    0.386E-01
RMM:   7    -0.250025165410E+02   -0.17608E-01   -0.42273E-03  4087   0.381E-01    0.484E-01
RMM:   8    -0.250112392270E+02   -0.87227E-02   -0.33546E-03  4057   0.318E-01    0.188E-01
RMM:   9    -0.250143765314E+02   -0.31373E-02   -0.74442E-04  3359   0.150E-01    0.193E-01
RMM:  10    -0.250180377055E+02   -0.36612E-02   -0.19927E-03  3635   0.211E-01    0.117E-01
RMM:  11    -0.250202490473E+02   -0.22113E-02   -0.29970E-03  3724   0.246E-01    0.655E-02
RMM:  12    -0.250206803927E+02   -0.43135E-03   -0.97703E-04  3299   0.145E-01    0.616E-02
RMM:  13    -0.250203618986E+02    0.31849E-03   -0.29007E-04  2923   0.888E-02    0.264E-02
RMM:  14    -0.250204169563E+02   -0.55058E-04   -0.29634E-04  2950   0.766E-02
   4 F= -.25020417E+02 E0= -.25021145E+02  d E =0.961986E+01  mag=    -0.0023
       N       E                     dE             d eps       ncg     rms          rms(c)
DAV:   1    -0.266165037734E+02   -0.15961E+01   -0.31596E+02  4032   0.131E+02    0.583E+00
RMM:   2    -0.275911891775E+02   -0.97469E+00   -0.20894E+01  4612   0.306E+01    0.294E+00
RMM:   3    -0.274486711929E+02    0.14252E+00   -0.13507E+00  4171   0.711E+00    0.152E+00
RMM:   4    -0.274452279734E+02    0.34432E-02   -0.17435E-01  4691   0.279E+00    0.967E-01
RMM:   5    -0.274696895820E+02   -0.24462E-01   -0.74468E-02  4437   0.155E+00    0.132E+00
RMM:   6    -0.274641093485E+02    0.55802E-02   -0.22815E-02  4189   0.741E-01    0.337E-01
RMM:   7    -0.274779466236E+02   -0.13837E-01   -0.85368E-03  4057   0.527E-01    0.124E-01
RMM:   8    -0.274808671991E+02   -0.29206E-02   -0.33000E-03  3952   0.347E-01    0.911E-02
RMM:   9    -0.274808380978E+02    0.29101E-04   -0.58474E-04  3331   0.152E-01
   5 F= -.27480838E+02 E0= -.27481015E+02  d E =0.715944E+01  mag=     0.0003
       N       E                     dE             d eps       ncg     rms          rms(c)
DAV:   1    -0.284042144565E+02   -0.92335E+00   -0.81104E+01  4080   0.667E+01    0.256E+00
RMM:   2    -0.285983984035E+02   -0.19418E+00   -0.42416E+00  4560   0.142E+01    0.150E+00
RMM:   3    -0.285700194298E+02    0.28379E-01   -0.32059E-01  4120   0.346E+00    0.950E-01
RMM:   4    -0.285618580528E+02    0.81614E-02   -0.72603E-02  4406   0.141E+00    0.755E-01
RMM:   5    -0.285637356124E+02   -0.18776E-02   -0.12236E-02  4345   0.628E-01    0.279E-01
RMM:   6    -0.285712189912E+02   -0.74834E-02   -0.47349E-03  4269   0.377E-01    0.122E-01
RMM:   7    -0.285766996245E+02   -0.54806E-02   -0.15225E-03  3833   0.217E-01    0.458E-02
RMM:   8    -0.285776703466E+02   -0.97072E-03   -0.18339E-04  2908   0.807E-02    0.318E-02
RMM:   9    -0.285780356781E+02   -0.36533E-03   -0.12931E-04  2834   0.649E-02    0.151E-02
RMM:  10    -0.285786001086E+02   -0.56443E-03   -0.14463E-04  2901   0.547E-02    0.135E-02
RMM:  11    -0.285784343113E+02    0.16580E-03   -0.65920E-05  2450   0.383E-02    0.472E-03
RMM:  12    -0.285783233850E+02    0.11093E-03   -0.32626E-05  2136   0.275E-02    0.395E-03
RMM:  13    -0.285783532670E+02   -0.29882E-04   -0.37172E-05  2084   0.294E-02
   6 F= -.28578353E+02 E0= -.28578471E+02  d E =0.606193E+01  mag=     0.0000
       N       E                     dE             d eps       ncg     rms          rms(c)
DAV:   1    -0.289246405300E+02   -0.34632E+00   -0.20438E+01  4912   0.338E+01    0.121E+00
RMM:   2    -0.289750370722E+02   -0.50397E-01   -0.10326E+00  4528   0.699E+00    0.786E-01
RMM:   3    -0.289664506109E+02    0.85865E-02   -0.76366E-02  4223   0.167E+00    0.489E-01
RMM:   4    -0.289635233941E+02    0.29272E-02   -0.17356E-02  4249   0.709E-01    0.275E-01
RMM:   5    -0.289665550145E+02   -0.30316E-02   -0.25643E-03  4412   0.307E-01    0.110E-01
RMM:   6    -0.289698703309E+02   -0.33153E-02   -0.61630E-04  3821   0.138E-01    0.471E-02
RMM:   7    -0.289724835886E+02   -0.26133E-02   -0.22638E-04  3050   0.902E-02    0.184E-02
RMM:   8    -0.289728157422E+02   -0.33215E-03   -0.43137E-05  2707   0.464E-02    0.110E-02
RMM:   9    -0.289729354116E+02   -0.11967E-03   -0.32377E-05  2498   0.354E-02    0.455E-03
RMM:  10    -0.289731352919E+02   -0.19988E-03   -0.42420E-05  2430   0.345E-02    0.406E-03
RMM:  11    -0.289731153688E+02    0.19923E-04   -0.30829E-05  2231   0.328E-02
   7 F= -.28973115E+02 E0= -.28973223E+02  d E =0.566717E+01  mag=    -0.0000
       N       E                     dE             d eps       ncg     rms          rms(c)
DAV:   1    -0.290885080645E+02   -0.11537E+00   -0.51222E+00  4048   0.171E+01    0.590E-01
RMM:   2    -0.291007700777E+02   -0.12262E-01   -0.25652E-01  4508   0.349E+00    0.403E-01
RMM:   3    -0.290978580450E+02    0.29120E-02   -0.17300E-02  4221   0.804E-01    0.233E-01
RMM:   4    -0.290976879478E+02    0.17010E-03   -0.43719E-03  4222   0.371E-01    0.119E-01
RMM:   5    -0.290994185308E+02   -0.17306E-02   -0.61160E-04  4088   0.154E-01    0.487E-02
RMM:   6    -0.291009826602E+02   -0.15641E-02   -0.11007E-04  2744   0.700E-02    0.219E-02
RMM:   7    -0.291022477358E+02   -0.12651E-02   -0.62886E-05  2700   0.514E-02    0.841E-03
RMM:   8    -0.291024110816E+02   -0.16335E-03   -0.22687E-05  2517   0.316E-02    0.535E-03
RMM:   9    -0.291024767944E+02   -0.65713E-04   -0.23350E-05  2238   0.303E-02
   8 F= -.29102477E+02 E0= -.29102581E+02  d E =0.553780E+01  mag=    -0.0000
       N       E                     dE             d eps       ncg     rms          rms(c)
DAV:   1    -0.291406202212E+02   -0.38209E-01   -0.12819E+00  4096   0.858E+00    0.292E-01
RMM:   2    -0.291435074269E+02   -0.28872E-02   -0.64820E-02  4502   0.176E+00    0.206E-01
RMM:   3    -0.291425393882E+02    0.96804E-03   -0.42140E-03  4223   0.399E-01    0.114E-01
RMM:   4    -0.291427615740E+02   -0.22219E-03   -0.10971E-03  4200   0.190E-01    0.557E-02
RMM:   5    -0.291436605164E+02   -0.89894E-03   -0.13178E-04  2805   0.832E-02    0.230E-02
RMM:   6    -0.291444309750E+02   -0.77046E-03   -0.55677E-05  2723   0.563E-02    0.113E-02
RMM:   7    -0.291450188386E+02   -0.58786E-03   -0.58119E-05  2682   0.519E-02    0.486E-03
RMM:   8    -0.291451024706E+02   -0.83632E-04   -0.31423E-05  2334   0.354E-02
   9 F= -.29145102E+02 E0= -.29145205E+02  d E =0.549518E+01  mag=    -0.0000
       N       E                     dE             d eps       ncg     rms          rms(c)
DAV:   1    -0.291585769729E+02   -0.13558E-01   -0.32086E-01  4104   0.431E+00    0.145E-01
RMM:   2    -0.291592453101E+02   -0.66834E-03   -0.16374E-02  4505   0.885E-01    0.103E-01
RMM:   3    -0.291589311408E+02    0.31417E-03   -0.10344E-03  3959   0.200E-01    0.562E-02
RMM:   4    -0.291590974434E+02   -0.16630E-03   -0.24455E-04  3073   0.996E-02    0.258E-02
RMM:   5    -0.291595386932E+02   -0.44125E-03   -0.37173E-05  2712   0.487E-02    0.106E-02
RMM:   6    -0.291599006107E+02   -0.36192E-03   -0.15699E-05  2536   0.312E-02    0.506E-03
RMM:   7    -0.291602435631E+02   -0.34295E-03   -0.20147E-05  2456   0.311E-02    0.192E-03
RMM:   8    -0.291602676100E+02   -0.24047E-04   -0.13600E-05  2147   0.260E-02
  10 F= -.29160268E+02 E0= -.29160370E+02  d E =0.548001E+01  mag=     0.0000
       N       E                     dE             d eps       ncg     rms          rms(c)
DAV:   1    -0.291654984992E+02   -0.52549E-02   -0.80251E-02  4552   0.216E+00    0.720E-02
RMM:   2    -0.291656526012E+02   -0.15410E-03   -0.41863E-03  4493   0.447E-01    0.517E-02
RMM:   3    -0.291655147127E+02    0.13789E-03   -0.22914E-04  2919   0.102E-01    0.277E-02
RMM:   4    -0.291656361147E+02   -0.12140E-03   -0.78914E-05  2728   0.613E-02    0.130E-02
RMM:   5    -0.291658427799E+02   -0.20667E-03   -0.24892E-05  2623   0.374E-02    0.519E-03
RMM:   6    -0.291660477959E+02   -0.20502E-03   -0.45276E-05  2502   0.393E-02    0.267E-03
RMM:   7    -0.291662224968E+02   -0.17470E-03   -0.99240E-05  2780   0.506E-02    0.109E-03
RMM:   8    -0.291662482903E+02   -0.25794E-04   -0.75839E-05  2557   0.459E-02
  11 F= -.29166248E+02 E0= -.29166350E+02  d E =0.547403E+01  mag=     0.0000
       N       E                     dE             d eps       ncg     rms          rms(c)
DAV:   1    -0.291684699753E+02   -0.22475E-02   -0.20152E-02  4040   0.108E+00    0.362E-02
RMM:   2    -0.291684557087E+02    0.14267E-04   -0.11158E-03  4237   0.231E-01    0.259E-02
RMM:   3    -0.291683998788E+02    0.55830E-04   -0.57544E-05  2726   0.562E-02
  12 F= -.29168400E+02 E0= -.29168502E+02  d E =0.547188E+01  mag=     0.0000
       N       E                     dE             d eps       ncg     rms          rms(c)
DAV:   1    -0.291694925869E+02   -0.10369E-02   -0.48894E-03  4416   0.541E-01    0.190E-02
RMM:   2    -0.291695857826E+02   -0.93196E-04   -0.28504E-04  3429   0.121E-01
  13 F= -.29169586E+02 E0= -.29169687E+02  d E =0.547070E+01  mag=     0.0000
       N       E                     dE             d eps       ncg     rms          rms(c)
DAV:   1    -0.291712481844E+02   -0.17556E-02   -0.18192E+01  4040   0.318E+01    0.187E+00
RMM:   2    -0.291835941521E+02   -0.12346E-01   -0.10133E+00  4446   0.697E+00    0.107E+00
RMM:   3    -0.291525182626E+02    0.31076E-01   -0.94993E-02  4218   0.190E+00    0.410E-01
RMM:   4    -0.291563021050E+02   -0.37838E-02   -0.20630E-02  4236   0.818E-01    0.217E-01
RMM:   5    -0.291607208920E+02   -0.44188E-02   -0.22062E-03  4168   0.257E-01    0.968E-02
RMM:   6    -0.291653323689E+02   -0.46115E-02   -0.58777E-04  3786   0.137E-01    0.367E-02
RMM:   7    -0.291673533997E+02   -0.20210E-02   -0.82330E-05  2758   0.631E-02    0.136E-02
RMM:   8    -0.291675599066E+02   -0.20651E-03   -0.35843E-05  2685   0.409E-02    0.856E-03
RMM:   9    -0.291677757264E+02   -0.21582E-03   -0.14671E-05  2468   0.283E-02    0.398E-03
RMM:  10    -0.291681673015E+02   -0.39158E-03   -0.18951E-05  2427   0.267E-02    0.493E-03
RMM:  11    -0.291680902072E+02    0.77094E-04   -0.12341E-05  2089   0.210E-02
  14 F= -.29168090E+02 E0= -.29168187E+02  d E =0.149558E-02  mag=    -0.0000
       N       E                     dE             d eps       ncg     rms          rms(c)
DAV:   1    -0.292031955922E+02   -0.35028E-01   -0.40469E+00  5072   0.153E+01    0.859E-01
RMM:   2    -0.292135597435E+02   -0.10364E-01   -0.22641E-01  4450   0.328E+00    0.510E-01
RMM:   3    -0.292082187800E+02    0.53410E-02   -0.22152E-02  4204   0.901E-01    0.187E-01
RMM:   4    -0.292048963858E+02    0.33224E-02   -0.36720E-03  4301   0.361E-01    0.801E-02
RMM:   5    -0.292018683652E+02    0.30280E-02   -0.35006E-04  3378   0.114E-01    0.362E-02
RMM:   6    -0.292000187071E+02    0.18497E-02   -0.96647E-05  2760   0.677E-02    0.209E-02
RMM:   7    -0.291991737676E+02    0.84494E-03   -0.34582E-05  2689   0.439E-02    0.727E-03
RMM:   8    -0.291991645375E+02    0.92300E-05   -0.19523E-05  2575   0.336E-02
  15 F= -.29199165E+02 E0= -.29199263E+02  d E =-.295788E-01  mag=     0.0000
       N       E                     dE             d eps       ncg     rms          rms(c)
DAV:   1    -0.292136863633E+02   -0.14513E-01   -0.19709E+00  4376   0.965E+00    0.656E-01
RMM:   2    -0.292140075577E+02   -0.32119E-03   -0.67720E-02  4186   0.179E+00    0.406E-01
RMM:   3    -0.292116658682E+02    0.23417E-02   -0.10252E-02  4414   0.572E-01    0.169E-01
RMM:   4    -0.292092898198E+02    0.23760E-02   -0.29519E-03  4096   0.324E-01    0.563E-02
RMM:   5    -0.292068062535E+02    0.24836E-02   -0.15716E-04  2797   0.877E-02    0.334E-02
RMM:   6    -0.292048951045E+02    0.19111E-02   -0.58795E-05  2631   0.553E-02    0.160E-02
RMM:   7    -0.292036332888E+02    0.12618E-02   -0.34924E-05  2559   0.412E-02    0.726E-03
RMM:   8    -0.292035547081E+02    0.78581E-04   -0.20311E-05  2512   0.329E-02
  16 F= -.29203555E+02 E0= -.29203656E+02  d E =-.439017E-02  mag=    -0.0000
       N       E                     dE             d eps       ncg     rms          rms(c)
DAV:   1    -0.292038499230E+02   -0.21663E-03   -0.48569E-02  4032   0.151E+00    0.101E-01
RMM:   2    -0.292046912838E+02   -0.84136E-03   -0.16757E-03  4175   0.282E-01    0.619E-02
RMM:   3    -0.292046700964E+02    0.21187E-04   -0.22930E-04  3201   0.920E-02
  17 F= -.29204670E+02 E0= -.29204771E+02  d E =-.550556E-02  mag=     0.0000
       N       E                     dE             d eps       ncg     rms          rms(c)
DAV:   1    -0.292112550124E+02   -0.65637E-02   -0.10456E+00  4896   0.853E+00    0.696E-01
RMM:   2    -0.292100395888E+02    0.12154E-02   -0.91569E-02  4624   0.213E+00    0.489E-01
RMM:   3    -0.292066526325E+02    0.33870E-02   -0.10554E-02  4228   0.608E-01    0.228E-01
RMM:   4    -0.292033387886E+02    0.33138E-02   -0.35512E-03  4100   0.364E-01    0.752E-02
RMM:   5    -0.292013384633E+02    0.20003E-02   -0.36393E-04  3369   0.115E-01    0.423E-02
RMM:   6    -0.291997163798E+02    0.16221E-02   -0.82350E-05  2727   0.634E-02    0.165E-02
RMM:   7    -0.291988168461E+02    0.89953E-03   -0.41668E-05  2622   0.464E-02    0.769E-03
RMM:   8    -0.291987232761E+02    0.93570E-04   -0.14855E-05  2514   0.280E-02
  18 F= -.29198723E+02 E0= -.29198828E+02  d E =0.594682E-02  mag=     0.0000
       N       E                     dE             d eps       ncg     rms          rms(c)
DAV:   1    -0.292084452351E+02   -0.96284E-02   -0.65868E-01  4224   0.675E+00    0.551E-01
RMM:   2    -0.292023831324E+02    0.60621E-02   -0.57313E-02  4627   0.169E+00    0.374E-01
RMM:   3    -0.292000230899E+02    0.23600E-02   -0.63783E-03  4203   0.479E-01    0.177E-01
RMM:   4    -0.292006614888E+02   -0.63840E-03   -0.22592E-03  4100   0.287E-01    0.652E-02
RMM:   5    -0.292019292569E+02   -0.12678E-02   -0.21283E-04  2939   0.935E-02    0.322E-02
RMM:   6    -0.292032650788E+02   -0.13358E-02   -0.63768E-05  2706   0.592E-02    0.123E-02
RMM:   7    -0.292039101459E+02   -0.64507E-03   -0.40533E-05  2601   0.439E-02    0.619E-03
RMM:   8    -0.292039475068E+02   -0.37361E-04   -0.19790E-05  2494   0.309E-02
  19 F= -.29203948E+02 E0= -.29204049E+02  d E =0.722590E-03  mag=     0.0000
