       N       E                     dE             d eps       ncg     rms          rms(c)
DAV:   1     0.507645383389E+03    0.50765E+03   -0.30562E+04  5760   0.985E+02
DAV:   2     0.642466564109E+02   -0.44340E+03   -0.41839E+03  7064   0.241E+02
DAV:   3    -0.110440110804E+02   -0.75291E+02   -0.73235E+02  6368   0.900E+01
DAV:   4    -0.139802568513E+02   -0.29362E+01   -0.28154E+01  6112   0.207E+01
DAV:   5    -0.140489929482E+02   -0.68736E-01   -0.68538E-01  6420   0.317E+00    0.521E+01
RMM:   6    -0.756965422152E+02   -0.61648E+02   -0.54141E+02  6009   0.135E+02    0.545E+01
RMM:   7    -0.287204166521E+02    0.46976E+02   -0.91061E+01  4992   0.610E+01    0.269E+01
RMM:   8    -0.139927067580E+02    0.14728E+02   -0.37991E+01  5515   0.657E+01    0.122E+01
RMM:   9    -0.153622218376E+02   -0.13695E+01   -0.16876E+01  4994   0.206E+01    0.121E+01
RMM:  10    -0.159113391508E+02   -0.54912E+00   -0.14401E+01  4992   0.255E+01    0.140E+01
RMM:  11    -0.171735382925E+02   -0.12622E+01   -0.11594E+00  4992   0.544E+00    0.947E+00
RMM:  12    -0.176233713980E+02   -0.44983E+00   -0.70407E+00  4992   0.135E+01    0.746E+00
RMM:  13    -0.183864600579E+02   -0.76309E+00    0.45097E-02  6256   0.474E+00    0.735E+00
RMM:  14    -0.182562506182E+02    0.13021E+00   -0.45841E+00  4992   0.115E+01    0.206E+00
RMM:  15    -0.183691758006E+02   -0.11293E+00   -0.28740E-01  4992   0.260E+00    0.224E+00
RMM:  16    -0.183403902397E+02    0.28786E-01   -0.51346E-02  4992   0.131E+00    0.126E+00
RMM:  17    -0.183330368413E+02    0.73534E-02   -0.51247E-02  4992   0.121E+00    0.301E-01
RMM:  18    -0.183324730455E+02    0.56380E-03   -0.64871E-03  4641   0.285E-01    0.133E-01
RMM:  19    -0.183318057911E+02    0.66725E-03   -0.13277E-03  4368   0.180E-01    0.160E-02
RMM:  20    -0.183320100269E+02   -0.20424E-03   -0.62027E-04  3896   0.802E-02    0.214E-02
RMM:  21    -0.183321499650E+02   -0.13994E-03   -0.30631E-04  3543   0.633E-02    0.721E-03
RMM:  22    -0.183323298434E+02   -0.17988E-03   -0.31020E-04  3532   0.638E-02    0.796E-03
RMM:  23    -0.183323737181E+02   -0.43875E-04   -0.52729E-04  3504   0.736E-02
   1 F= -.18332374E+02 E0= -.18332714E+02  d E =-.183324E+02  mag=     0.0010
       N       E                     dE             d eps       ncg     rms          rms(c)
DAV:   1    -0.184481479080E+02   -0.11582E+00   -0.16557E+00  6036   0.137E+01    0.340E+00
RMM:   2    -0.184683553611E+02   -0.20207E-01   -0.20054E+00  4994   0.972E+00    0.311E+00
RMM:   3    -0.183232484651E+02    0.14511E+00   -0.56192E-01  4992   0.509E+00    0.551E-01
RMM:   4    -0.183300109899E+02   -0.67625E-02   -0.33057E-02  5280   0.574E-01    0.440E-01
RMM:   5    -0.183250836315E+02    0.49274E-02   -0.10758E-02  4936   0.587E-01    0.978E-02
RMM:   6    -0.183273564529E+02   -0.22728E-02   -0.77669E-04  4228   0.150E-01    0.240E-02
RMM:   7    -0.183278841698E+02   -0.52772E-03   -0.20242E-04  3492   0.759E-02    0.184E-02
RMM:   8    -0.183281003390E+02   -0.21617E-03   -0.43088E-04  3558   0.716E-02    0.477E-03
RMM:   9    -0.377925293119E+02   -0.19464E+02   -0.16667E+02  4372   0.720E+00    0.100E+01
RMM:  10    -0.182832982439E+02    0.19509E+02   -0.12743E-02  4896   0.802E-01    0.346E-01
RMM:  11    -0.183225740259E+02   -0.39276E-01   -0.52900E-03  4897   0.623E-01    0.635E-02
RMM:  12    -0.183273599509E+02   -0.47859E-02   -0.58491E-04  4110   0.175E-01    0.142E-02
RMM:  13    -0.183283685748E+02   -0.10086E-02   -0.93463E-05  3307   0.585E-02    0.536E-03
RMM:  14    -0.183286198929E+02   -0.25132E-03   -0.10416E-04  3355   0.433E-02    0.339E-03
RMM:  15    -0.183287867459E+02   -0.16685E-03   -0.12589E-04  3329   0.394E-02    0.162E-03
RMM:  16    -0.231151758298E+02   -0.47864E+01   -0.26422E+01  3796   0.202E+00    0.880E+00
RMM:  17    -0.182856092210E+02    0.48296E+01   -0.58619E-02  4900   0.866E-01    0.347E-01
RMM:  18    -0.183226521275E+02   -0.37043E-01   -0.79285E-03  4898   0.638E-01    0.621E-02
RMM:  19    -0.183276813573E+02   -0.50292E-02   -0.37212E-04  3842   0.150E-01    0.139E-02
RMM:  20    -0.183285806198E+02   -0.89926E-03   -0.10677E-04  3346   0.620E-02    0.557E-03
RMM:  21    -0.183286771671E+02   -0.96547E-04   -0.55521E-05  3283   0.367E-02
   2 F= -.18328677E+02 E0= -.18329013E+02  d E =0.369655E-02  mag=     0.0001
       N       E                     dE             d eps       ncg     rms          rms(c)
DAV:   1    -0.183403229613E+02   -0.11742E-01   -0.16872E-01  5780   0.438E+00    0.100E+00
RMM:   2    -0.183569479964E+02   -0.16625E-01   -0.16342E-01  4992   0.273E+00    0.937E-01
RMM:   3    -0.183333458794E+02    0.23602E-01   -0.51131E-02  4992   0.152E+00    0.273E-01
RMM:   4    -0.183327639834E+02    0.58190E-03   -0.25754E-03  4992   0.327E-01    0.422E-02
RMM:   5    -0.183319173496E+02    0.84663E-03   -0.30868E-04  3620   0.849E-02    0.131E-02
RMM:   6    -0.183369077328E+02   -0.49904E-02   -0.50993E-04  3672   0.816E-02    0.329E-01
RMM:   7    -0.183289211306E+02    0.79866E-02   -0.35361E-03  3718   0.110E-01    0.271E-02
RMM:   8    -0.183308928069E+02   -0.19717E-02   -0.11363E-04  3369   0.692E-02    0.632E-03
RMM:   9    -0.183309799237E+02   -0.87117E-04   -0.11316E-04  3357   0.405E-02
   3 F= -.18330980E+02 E0= -.18331317E+02  d E =0.139379E-02  mag=     0.0000
       N       E                     dE             d eps       ncg     rms          rms(c)
DAV:   1    -0.248948358229E+02   -0.65639E+01   -0.12905E+00  6004   0.878E+00    0.130E+01
RMM:   2    -0.239568034488E+02    0.93803E+00   -0.37005E+01  5119   0.337E+01    0.178E+01
RMM:   3    -0.192230067301E+02    0.47338E+01   -0.12869E+01  4992   0.250E+01    0.689E+00
RMM:   4    -0.187554098700E+02    0.46760E+00   -0.43903E+00  4992   0.109E+01    0.150E+00
RMM:   5    -0.187426832237E+02    0.12727E-01   -0.24468E-01  4992   0.297E+00    0.197E+00
RMM:   6    -0.186202147171E+02    0.12247E+00   -0.68366E-02  4992   0.708E-01    0.171E+00
RMM:   7    -0.185273647304E+02    0.92850E-01   -0.59491E-02  4992   0.105E+00    0.827E-01
RMM:   8    -0.184864170694E+02    0.40948E-01   -0.70484E-03  4711   0.235E-01    0.730E-01
RMM:   9    -0.184513507502E+02    0.35066E-01   -0.18573E-03  4651   0.119E-01    0.724E-01
RMM:  10    -0.184231466147E+02    0.28204E-01   -0.14247E-03  4462   0.908E-02    0.693E-01
RMM:  11    -0.183992341830E+02    0.23912E-01   -0.19606E-03  4416   0.159E-01    0.571E-01
RMM:  12    -0.183781337927E+02    0.21100E-01   -0.19499E-03  4418   0.156E-01    0.471E-01
RMM:  13    -0.183582002509E+02    0.19934E-01   -0.20130E-03  4532   0.118E-01    0.421E-01
RMM:  14    -0.183385608506E+02    0.19639E-01   -0.39218E-03  4621   0.209E-01    0.282E-01
RMM:  15    -0.183323659646E+02    0.61949E-02   -0.19855E-03  4416   0.160E-01    0.181E-01
RMM:  16    -0.183297372810E+02    0.26287E-02   -0.10777E-03  4402   0.839E-02    0.143E-01
RMM:  17    -0.183297918367E+02   -0.54556E-04   -0.49030E-04  4068   0.969E-02
   4 F= -.18329792E+02 E0= -.18330132E+02  d E =0.118809E-02  mag=    -0.0100
       N       E                     dE             d eps       ncg     rms          rms(c)
DAV:   1    -0.183309713390E+02   -0.12341E-02   -0.32025E-03  5888   0.120E+00    0.922E-02
RMM:   2    -0.183333282979E+02   -0.23570E-02   -0.31835E-03  5206   0.282E-01    0.891E-02
RMM:   3    -0.183325048963E+02    0.82340E-03   -0.47111E-04  3895   0.145E-01    0.260E-02
RMM:   4    -0.183332617574E+02   -0.75686E-03   -0.21520E-04  3388   0.619E-02    0.976E-03
RMM:   5    -0.183331644069E+02    0.97351E-04   -0.22433E-04  3228   0.514E-02
   5 F= -.18333164E+02 E0= -.18333504E+02  d E =-.218448E-02  mag=    -0.0034
       N       E                     dE             d eps       ncg     rms          rms(c)
DAV:   1    -0.183292120975E+02    0.40497E-02   -0.13925E-01  5372   0.986E+00    0.444E-01
RMM:   2    -0.183386027129E+02   -0.93906E-02   -0.86680E-02  6374   0.182E+00    0.272E-01
RMM:   3    -0.183342756186E+02    0.43271E-02   -0.65952E-03  4942   0.448E-01    0.173E-01
RMM:   4    -0.183353730538E+02   -0.10974E-02   -0.74603E-04  4542   0.174E-01    0.747E-02
RMM:   5    -0.183362899585E+02   -0.91690E-03   -0.58283E-04  3856   0.963E-02    0.102E-02
RMM:   6    -0.183360872164E+02    0.20274E-03   -0.47378E-04  3521   0.705E-02    0.653E-03
RMM:   7    -0.183364910806E+02   -0.40386E-03   -0.14725E-03  3877   0.509E-02    0.372E-03
RMM:   8    -0.183361327785E+02    0.35830E-03   -0.19318E-03  3439   0.865E-02    0.351E-03
RMM:   9    -0.183361197401E+02    0.13038E-04   -0.31474E-04  3276   0.497E-02
   6 F= -.18336120E+02 E0= -.18336463E+02  d E =-.295533E-02  mag=    -0.0006
       N       E                     dE             d eps       ncg     rms          rms(c)
DAV:   1    -0.183361644216E+02   -0.31643E-04   -0.85190E-04  4920   0.243E-01    0.112E-02
RMM:   2    -0.183359184012E+02    0.24602E-03   -0.66315E-04  3612   0.865E-02    0.960E-03
RMM:   3    -0.183360356246E+02   -0.11722E-03    0.38135E-04  4286   0.694E-02    0.464E-03
RMM:   4    -0.183360972302E+02   -0.61606E-04   -0.14834E-03  3492   0.869E-02    0.196E-03
RMM:   5    -0.196362339210E+02   -0.13001E+01   -0.10065E-03  3725   0.493E-02    0.914E+00
RMM:   6    -0.182926082610E+02    0.13436E+01   -0.15843E-01  4896   0.906E-01    0.334E-01
RMM:   7    -0.183289837959E+02   -0.36376E-01   -0.44140E-03  4896   0.596E-01    0.601E-02
RMM:   8    -0.183340723464E+02   -0.50886E-02   -0.27453E-04  3817   0.145E-01    0.133E-02
RMM:   9    -0.183350887676E+02   -0.10164E-02   -0.17645E-04  3423   0.691E-02    0.547E-03
RMM:  10    -0.183352812200E+02   -0.19245E-03   -0.13363E-04  3394   0.535E-02    0.381E-03
RMM:  11    -0.183354314510E+02   -0.15023E-03   -0.73060E-05  3151   0.331E-02    0.253E-03
RMM:  12    -0.189290858290E+02   -0.59365E+00   -0.11994E-03  3437   0.507E-02    0.484E+00
RMM:  13    -0.183088570219E+02    0.62023E+00   -0.14535E-02  4702   0.536E-01    0.224E-01
RMM:  14    -0.183310833693E+02   -0.22226E-01   -0.25771E-03  4681   0.425E-01    0.404E-02
RMM:  15    -0.183346297292E+02   -0.35464E-02   -0.26309E-04  3623   0.116E-01    0.919E-03
RMM:  16    -0.183354092055E+02   -0.77948E-03   -0.77276E-05  3282   0.499E-02    0.399E-03
RMM:  17    -0.183356268439E+02   -0.21764E-03   -0.87493E-05  3242   0.404E-02    0.272E-03
RMM:  18    -0.195214927262E+02   -0.11859E+01   -0.68348E-04  3353   0.374E-02    0.830E+00
RMM:  19    -0.182932896170E+02    0.12282E+01   -0.11917E-01  4896   0.911E-01    0.339E-01
RMM:  20    -0.183297937230E+02   -0.36504E-01   -0.11155E-02  5002   0.697E-01    0.608E-02
RMM:  21    -0.183340286732E+02   -0.42350E-02   -0.81475E-03  4203   0.374E-01    0.140E-02
RMM:  22    -0.183348201477E+02   -0.79147E-03   -0.95381E-05  3308   0.605E-02    0.738E-03
RMM:  23    -0.183350125450E+02   -0.19240E-03   -0.27987E-05  3162   0.310E-02    0.560E-03
RMM:  24    -0.183351098988E+02   -0.97354E-04   -0.47526E-05  2923   0.291E-02
   7 F= -.18335110E+02 E0= -.18335453E+02  d E =-.194549E-02  mag=    -0.0003
