unknown system                          
           1
     0.000000   -4.332437    0.000000
    -4.145747    0.000000    0.000000
     0.000000   -0.497367  -22.226861
   Mo   O 
   1   3
Direct configuration=     1
   0.29579898  0.50000000  0.07375184
   0.75486686  0.50000000  0.08930401
   0.23128090  0.00000000  0.10163743
   0.28681625  0.50000000  0.99736072
unknown system                          
           1
     0.000000   -4.144546    0.000000
    -3.933598    0.000000    0.000000
     0.000000   -0.475797  -22.226861
   Mo   O 
   1   3
Direct configuration=     2
   0.23705773  0.50000000  0.09630338
   0.90376227  0.50000000  0.08711623
   0.17813602  0.00000000  0.11192009
   0.24980698  0.50000000  0.96671430
unknown system                          
           1
     0.000000   -4.066950    0.000000
    -3.845984    0.000000    0.000000
     0.000000   -0.466889  -22.226861
   Mo   O 
   1   3
Direct configuration=     3
   0.25761219  0.50000000  0.08747733
   0.85193520  0.50000000  0.08797247
   0.19668184  0.00000000  0.10789574
   0.26253377  0.50000000  0.97870846
unknown system                          
           1
     0.000000   -3.959653    0.000000
    -3.724834    0.000000    0.000000
     0.000000   -0.454571  -22.226861
   Mo   O 
   1   3
Direct configuration=     4
   0.26646667  0.50000000  0.08383233
   0.82956309  0.50000000  0.08832608
   0.20467949  0.00000000  0.10623376
   0.26805375  0.50000000  0.98366183
unknown system                          
           1
     0.000000   -3.906004    0.000000
    -3.664258    0.000000    0.000000
     0.000000   -0.448413  -22.226861
   Mo   O 
   1   3
Direct configuration=     5
   0.27893307  0.50000000  0.07879208
   0.79803808  0.50000000  0.08881504
   0.21594451  0.00000000  0.10393560
   0.27584734  0.50000000  0.99051127
unknown system                          
           1
     0.000000   -3.879179    0.000000
    -3.633970    0.000000    0.000000
     0.000000   -0.445333  -22.226861
   Mo   O 
   1   3
Direct configuration=     6
   0.28532734  0.50000000  0.07627196
   0.78184921  0.50000000  0.08905953
   0.22172606  0.00000000  0.10278652
   0.27986039  0.50000000  0.99393600
unknown system                          
           1
     0.000000   -3.865767    0.000000
    -3.618827    0.000000    0.000000
     0.000000   -0.443793  -22.226861
   Mo   O 
   1   3
Direct configuration=     7
   0.28856640  0.50000000  0.07501190
   0.77364379  0.50000000  0.08918177
   0.22465564  0.00000000  0.10221197
   0.28189717  0.50000000  0.99564836
unknown system                          
           1
     0.000000   -3.859061    0.000000
    -3.611255    0.000000    0.000000
     0.000000   -0.443023  -22.226861
   Mo   O 
   1   3
Direct configuration=     8
   0.29019663  0.50000000  0.07438187
   0.76951275  0.50000000  0.08924289
   0.22613033  0.00000000  0.10192470
   0.28292328  0.50000000  0.99650454
unknown system                          
           1
     0.000000   -3.855708    0.000000
    -3.607469    0.000000    0.000000
     0.000000   -0.442639  -22.226861
   Mo   O 
   1   3
Direct configuration=     9
   0.29101445  0.50000000  0.07406685
   0.76744008  0.50000000  0.08927345
   0.22687018  0.00000000  0.10178107
   0.28343829  0.50000000  0.99693263
unknown system                          
           1
     0.000000   -3.854031    0.000000
    -3.605576    0.000000    0.000000
     0.000000   -0.442446  -22.226861
   Mo   O 
   1   3
Direct configuration=    10
   0.29142403  0.50000000  0.07390934
   0.76640195  0.50000000  0.08928873
   0.22724073  0.00000000  0.10170925
   0.28369628  0.50000000  0.99714668
unknown system                          
           1
     0.000000   -3.853193    0.000000
    -3.604629    0.000000    0.000000
     0.000000   -0.442350  -22.226861
   Mo   O 
   1   3
Direct configuration=    11
   0.29162900  0.50000000  0.07383059
   0.76588243  0.50000000  0.08929637
   0.22742616  0.00000000  0.10167334
   0.28382540  0.50000000  0.99725370
unknown system                          
           1
     0.000000   -3.852774    0.000000
    -3.604156    0.000000    0.000000
     0.000000   -0.442302  -22.226861
   Mo   O 
   1   3
Direct configuration=    12
   0.29173152  0.50000000  0.07379121
   0.76562256  0.50000000  0.08930019
   0.22751892  0.00000000  0.10165539
   0.28388999  0.50000000  0.99730721
unknown system                          
           1
     0.000000   -3.784095    0.000000
    -3.603819    0.000000    0.000000
     0.000000   -0.434417  -22.226861
   Mo   O 
   1   3
Direct configuration=    13
   0.29178280  0.50000000  0.07377152
   0.76549260  0.50000000  0.08930210
   0.22756531  0.00000000  0.10164641
   0.28392230  0.50000000  0.99733397
unknown system                          
           1
     0.000000   -3.816253    0.000000
    -3.603977    0.000000    0.000000
     0.000000   -0.438109  -22.226861
   Mo   O 
   1   3
Direct configuration=    14
   0.29840614  0.50000000  0.07384521
   0.75451258  0.50000000  0.08907938
   0.23117094  0.00000000  0.10160274
   0.28467334  0.50000000  0.99752667
unknown system                          
           1
     0.000000   -3.835326    0.000000
    -3.609073    0.000000    0.000000
     0.000000   -0.440299  -22.226861
   Mo   O 
   1   3
Direct configuration=    15
   0.29524849  0.50000000  0.07381071
   0.75974735  0.50000000  0.08918366
   0.22945205  0.00000000  0.10162319
   0.28431510  0.50000000  0.99743644
unknown system                          
           1
     0.000000   -3.838327    0.000000
    -3.609874    0.000000    0.000000
     0.000000   -0.440643  -22.226861
   Mo   O 
   1   3
Direct configuration=    16
   0.29606931  0.50000000  0.07371149
   0.75609867  0.50000000  0.08928913
   0.23154223  0.00000000  0.10165034
   0.28505279  0.50000000  0.99740305
unknown system                          
           1
     0.000000   -3.866728    0.000000
    -3.605223    0.000000    0.000000
     0.000000   -0.443904  -22.226861
   Mo   O 
   1   3
Direct configuration=    17
   0.29619783  0.50000000  0.07369588
   0.75552740  0.50000000  0.08930572
   0.23186948  0.00000000  0.10165461
   0.28516830  0.50000000  0.99739779
unknown system                          
           1
     0.000000   -3.844220    0.000000
    -3.608909    0.000000    0.000000
     0.000000   -0.441320  -22.226861
   Mo   O 
   1   3
Direct configuration=    18
   0.29478471  0.50000000  0.07393221
   0.75564390  0.50000000  0.08936352
   0.23250113  0.00000000  0.10158016
   0.28583326  0.50000000  0.99717811
unknown system                          
           1
     0.000000   -3.844220    0.000000
    -3.608909    0.000000    0.000000
     0.000000   -0.441320  -22.226861
   Mo   O 
   1   3
Direct configuration=    19
   0.29589657  0.50000000  0.07374491
   0.75555229  0.50000000  0.08931771
   0.23200416  0.00000000  0.10163916
   0.28530998  0.50000000  0.99735221
