unknown system                          
           1
    -4.920539    0.000000    0.000000
     0.000000   -7.734903   -0.687600
     0.000000    0.000000   23.100399
   Cu   Se   Br
   2   4   2
Direct configuration=     1
   0.63767605  0.82183146  0.06798448
   0.13767605  0.17816854  0.06622952
   0.96575341  0.64859865  0.11158530
   0.30422231  0.62970137  0.02395884
   0.80422231  0.37029863  0.11025516
   0.46575341  0.35140135  0.02262870
   0.38853222  0.02051965  0.13578779
   0.88853222  0.97948035  0.99842621
unknown system                          
           1
    -4.925704    0.000000    0.000000
     0.000000   -7.745493   -0.687600
     0.000000    0.000000   23.100399
   Cu   Se   Br
   2   4   2
Direct configuration=     2
   0.63759853  0.82189845  0.06796263
   0.13759853  0.17810155  0.06625137
   0.96583962  0.64817823  0.11146785
   0.30432871  0.62917347  0.02402811
   0.80432871  0.37082653  0.11018589
   0.46583962  0.35182177  0.02274615
   0.38841713  0.02051802  0.13594419
   0.88841713  0.97948198  0.99826981
unknown system                          
           1
    -4.920124    0.000000    0.000000
     0.000000   -7.745758   -0.687600
     0.000000    0.000000   23.100399
   Cu   Se   Br
   2   4   2
Direct configuration=     3
   0.63762325  0.82187707  0.06796957
   0.13762325  0.17812293  0.06624443
   0.96581213  0.64831242  0.11150520
   0.30429479  0.62934196  0.02400612
   0.80429479  0.37065804  0.11020788
   0.46581213  0.35168758  0.02270880
   0.38845383  0.02051854  0.13589448
   0.88845383  0.97948146  0.99831952
unknown system                          
           1
    -4.920907    0.000000    0.000000
     0.000000   -7.745721   -0.687600
     0.000000    0.000000   23.100399
   Cu   Se   Br
   2   4   2
Direct configuration=     4
   0.63755511  0.82207624  0.06793671
   0.13755511  0.17792376  0.06627729
   0.96622679  0.64845229  0.11143999
   0.30410376  0.62928906  0.02402153
   0.80410376  0.37071094  0.11019247
   0.46622679  0.35154771  0.02277401
   0.38829834  0.02054310  0.13611087
   0.88829834  0.97945690  0.99810313
unknown system                          
           1
    -4.921224    0.000000    0.000000
     0.000000   -7.754427   -0.687600
     0.000000    0.000000   23.100399
   Cu   Se   Br
   2   4   2
Direct configuration=     5
   0.63756467  0.82204832  0.06794132
   0.13756467  0.17795168  0.06627268
   0.96616858  0.64843268  0.11144913
   0.30413058  0.62929648  0.02401937
   0.80413058  0.37070352  0.11019463
   0.46616858  0.35156732  0.02276487
   0.38832017  0.02053965  0.13608053
   0.88832017  0.97946035  0.99813347
unknown system                          
           1
    -4.921232    0.000000    0.000000
     0.000000   -7.754632   -0.687600
     0.000000    0.000000   23.100399
   Cu   Se   Br
   2   4   2
Direct configuration=     6
   0.63751683  0.82227349  0.06790241
   0.13751683  0.17772651  0.06631159
   0.96648762  0.64863610  0.11143144
   0.30395152  0.62935946  0.02400269
   0.80395152  0.37064054  0.11021131
   0.46648762  0.35136390  0.02278256
   0.38822803  0.02054504  0.13620794
   0.88822803  0.97945496  0.99800606
unknown system                          
           1
    -4.921232    0.000000    0.000000
     0.000000   -7.754632   -0.687600
     0.000000    0.000000   23.100399
   Cu   Se   Br
   2   4   2
Direct configuration=     7
   0.63751570  0.82227880  0.06790149
   0.13751570  0.17772120  0.06631251
   0.96649515  0.64864089  0.11143102
   0.30394729  0.62936095  0.02400229
   0.80394729  0.37063905  0.11021171
   0.46649515  0.35135911  0.02278298
   0.38822586  0.02054517  0.13621094
   0.88822586  0.97945483  0.99800306
